# vtk DataFile Version 3.0
Example 3D regular grid VTK file.
ASCII
DATASET STRUCTURED_GRID
DIMENSIONS 120 120 2
POINTS 28800 double
-3.96667 -3.96667 0
-3.96667 -3.9 0
-3.96667 -3.83333 0
-3.96667 -3.76667 0
-3.96667 -3.7 0
-3.96667 -3.63333 0
-3.96667 -3.56667 0
-3.96667 -3.5 0
-3.96667 -3.43333 0
-3.96667 -3.36667 0
-3.96667 -3.3 0
-3.96667 -3.23333 0
-3.96667 -3.16667 0
-3.96667 -3.1 0
-3.96667 -3.03333 0
-3.96667 -2.96667 0
-3.96667 -2.9 0
-3.96667 -2.83333 0
-3.96667 -2.76667 0
-3.96667 -2.7 0
-3.96667 -2.63333 0
-3.96667 -2.56667 0
-3.96667 -2.5 0
-3.96667 -2.43333 0
-3.96667 -2.36667 0
-3.96667 -2.3 0
-3.96667 -2.23333 0
-3.96667 -2.16667 0
-3.96667 -2.1 0
-3.96667 -2.03333 0
-3.96667 -1.96667 0
-3.96667 -1.9 0
-3.96667 -1.83333 0
-3.96667 -1.76667 0
-3.96667 -1.7 0
-3.96667 -1.63333 0
-3.96667 -1.56667 0
-3.96667 -1.5 0
-3.96667 -1.43333 0
-3.96667 -1.36667 0
-3.96667 -1.3 0
-3.96667 -1.23333 0
-3.96667 -1.16667 0
-3.96667 -1.1 0
-3.96667 -1.03333 0
-3.96667 -0.966667 0
-3.96667 -0.9 0
-3.96667 -0.833333 0
-3.96667 -0.766667 0
-3.96667 -0.7 0
-3.96667 -0.633333 0
-3.96667 -0.566667 0
-3.96667 -0.5 0
-3.96667 -0.433333 0
-3.96667 -0.366667 0
-3.96667 -0.3 0
-3.96667 -0.233333 0
-3.96667 -0.166667 0
-3.96667 -0.1 0
-3.96667 -0.0333333 0
-3.96667 0.0333333 0
-3.96667 0.1 0
-3.96667 0.166667 0
-3.96667 0.233333 0
-3.96667 0.3 0
-3.96667 0.366667 0
-3.96667 0.433333 0
-3.96667 0.5 0
-3.96667 0.566667 0
-3.96667 0.633333 0
-3.96667 0.7 0
-3.96667 0.766667 0
-3.96667 0.833333 0
-3.96667 0.9 0
-3.96667 0.966667 0
-3.96667 1.03333 0
-3.96667 1.1 0
-3.96667 1.16667 0
-3.96667 1.23333 0
-3.96667 1.3 0
-3.96667 1.36667 0
-3.96667 1.43333 0
-3.96667 1.5 0
-3.96667 1.56667 0
-3.96667 1.63333 0
-3.96667 1.7 0
-3.96667 1.76667 0
-3.96667 1.83333 0
-3.96667 1.9 0
-3.96667 1.96667 0
-3.96667 2.03333 0
-3.96667 2.1 0
-3.96667 2.16667 0
-3.96667 2.23333 0
-3.96667 2.3 0
-3.96667 2.36667 0
-3.96667 2.43333 0
-3.96667 2.5 0
-3.96667 2.56667 0
-3.96667 2.63333 0
-3.96667 2.7 0
-3.96667 2.76667 0
-3.96667 2.83333 0
-3.96667 2.9 0
-3.96667 2.96667 0
-3.96667 3.03333 0
-3.96667 3.1 0
-3.96667 3.16667 0
-3.96667 3.23333 0
-3.96667 3.3 0
-3.96667 3.36667 0
-3.96667 3.43333 0
-3.96667 3.5 0
-3.96667 3.56667 0
-3.96667 3.63333 0
-3.96667 3.7 0
-3.96667 3.76667 0
-3.96667 3.83333 0
-3.96667 3.9 0
-3.96667 3.96667 0
-3.9 -3.96667 0
-3.9 -3.9 0
-3.9 -3.83333 0
-3.9 -3.76667 0
-3.9 -3.7 0
-3.9 -3.63333 0
-3.9 -3.56667 0
-3.9 -3.5 0
-3.9 -3.43333 0
-3.9 -3.36667 0
-3.9 -3.3 0
-3.9 -3.23333 0
-3.9 -3.16667 0
-3.9 -3.1 0
-3.9 -3.03333 0
-3.9 -2.96667 0
-3.9 -2.9 0
-3.9 -2.83333 0
-3.9 -2.76667 0
-3.9 -2.7 0
-3.9 -2.63333 0
-3.9 -2.56667 0
-3.9 -2.5 0
-3.9 -2.43333 0
-3.9 -2.36667 0
-3.9 -2.3 0
-3.9 -2.23333 0
-3.9 -2.16667 0
-3.9 -2.1 0
-3.9 -2.03333 0
-3.9 -1.96667 0
-3.9 -1.9 0
-3.9 -1.83333 0
-3.9 -1.76667 0
-3.9 -1.7 0
-3.9 -1.63333 0
-3.9 -1.56667 0
-3.9 -1.5 0
-3.9 -1.43333 0
-3.9 -1.36667 0
-3.9 -1.3 0
-3.9 -1.23333 0
-3.9 -1.16667 0
-3.9 -1.1 0
-3.9 -1.03333 0
-3.9 -0.966667 0
-3.9 -0.9 0
-3.9 -0.833333 0
-3.9 -0.766667 0
-3.9 -0.7 0
-3.9 -0.633333 0
-3.9 -0.566667 0
-3.9 -0.5 0
-3.9 -0.433333 0
-3.9 -0.366667 0
-3.9 -0.3 0
-3.9 -0.233333 0
-3.9 -0.166667 0
-3.9 -0.1 0
-3.9 -0.0333333 0
-3.9 0.0333333 0
-3.9 0.1 0
-3.9 0.166667 0
-3.9 0.233333 0
-3.9 0.3 0
-3.9 0.366667 0
-3.9 0.433333 0
-3.9 0.5 0
-3.9 0.566667 0
-3.9 0.633333 0
-3.9 0.7 0
-3.9 0.766667 0
-3.9 0.833333 0
-3.9 0.9 0
-3.9 0.966667 0
-3.9 1.03333 0
-3.9 1.1 0
-3.9 1.16667 0
-3.9 1.23333 0
-3.9 1.3 0
-3.9 1.36667 0
-3.9 1.43333 0
-3.9 1.5 0
-3.9 1.56667 0
-3.9 1.63333 0
-3.9 1.7 0
-3.9 1.76667 0
-3.9 1.83333 0
-3.9 1.9 0
-3.9 1.96667 0
-3.9 2.03333 0
-3.9 2.1 0
-3.9 2.16667 0
-3.9 2.23333 0
-3.9 2.3 0
-3.9 2.36667 0
-3.9 2.43333 0
-3.9 2.5 0
-3.9 2.56667 0
-3.9 2.63333 0
-3.9 2.7 0
-3.9 2.76667 0
-3.9 2.83333 0
-3.9 2.9 0
-3.9 2.96667 0
-3.9 3.03333 0
-3.9 3.1 0
-3.9 3.16667 0
-3.9 3.23333 0
-3.9 3.3 0
-3.9 3.36667 0
-3.9 3.43333 0
-3.9 3.5 0
-3.9 3.56667 0
-3.9 3.63333 0
-3.9 3.7 0
-3.9 3.76667 0
-3.9 3.83333 0
-3.9 3.9 0
-3.9 3.96667 0
-3.83333 -3.96667 0
-3.83333 -3.9 0
-3.83333 -3.83333 0
-3.83333 -3.76667 0
-3.83333 -3.7 0
-3.83333 -3.63333 0
-3.83333 -3.56667 0
-3.83333 -3.5 0
-3.83333 -3.43333 0
-3.83333 -3.36667 0
-3.83333 -3.3 0
-3.83333 -3.23333 0
-3.83333 -3.16667 0
-3.83333 -3.1 0
-3.83333 -3.03333 0
-3.83333 -2.96667 0
-3.83333 -2.9 0
-3.83333 -2.83333 0
-3.83333 -2.76667 0
-3.83333 -2.7 0
-3.83333 -2.63333 0
-3.83333 -2.56667 0
-3.83333 -2.5 0
-3.83333 -2.43333 0
-3.83333 -2.36667 0
-3.83333 -2.3 0
-3.83333 -2.23333 0
-3.83333 -2.16667 0
-3.83333 -2.1 0
-3.83333 -2.03333 0
-3.83333 -1.96667 0
-3.83333 -1.9 0
-3.83333 -1.83333 0
-3.83333 -1.76667 0
-3.83333 -1.7 0
-3.83333 -1.63333 0
-3.83333 -1.56667 0
-3.83333 -1.5 0
-3.83333 -1.43333 0
-3.83333 -1.36667 0
-3.83333 -1.3 0
-3.83333 -1.23333 0
-3.83333 -1.16667 0
-3.83333 -1.1 0
-3.83333 -1.03333 0
-3.83333 -0.966667 0
-3.83333 -0.9 0
-3.83333 -0.833333 0
-3.83333 -0.766667 0
-3.83333 -0.7 0
-3.83333 -0.633333 0
-3.83333 -0.566667 0
-3.83333 -0.5 0
-3.83333 -0.433333 0
-3.83333 -0.366667 0
-3.83333 -0.3 0
-3.83333 -0.233333 0
-3.83333 -0.166667 0
-3.83333 -0.1 0
-3.83333 -0.0333333 0
-3.83333 0.0333333 0
-3.83333 0.1 0
-3.83333 0.166667 0
-3.83333 0.233333 0
-3.83333 0.3 0
-3.83333 0.366667 0
-3.83333 0.433333 0
-3.83333 0.5 0
-3.83333 0.566667 0
-3.83333 0.633333 0
-3.83333 0.7 0
-3.83333 0.766667 0
-3.83333 0.833333 0
-3.83333 0.9 0
-3.83333 0.966667 0
-3.83333 1.03333 0
-3.83333 1.1 0
-3.83333 1.16667 0
-3.83333 1.23333 0
-3.83333 1.3 0
-3.83333 1.36667 0
-3.83333 1.43333 0
-3.83333 1.5 0
-3.83333 1.56667 0
-3.83333 1.63333 0
-3.83333 1.7 0
-3.83333 1.76667 0
-3.83333 1.83333 0
-3.83333 1.9 0
-3.83333 1.96667 0
-3.83333 2.03333 0
-3.83333 2.1 0
-3.83333 2.16667 0
-3.83333 2.23333 0
-3.83333 2.3 0
-3.83333 2.36667 0
-3.83333 2.43333 0
-3.83333 2.5 0
-3.83333 2.56667 0
-3.83333 2.63333 0
-3.83333 2.7 0
-3.83333 2.76667 0
-3.83333 2.83333 0
-3.83333 2.9 0
-3.83333 2.96667 0
-3.83333 3.03333 0
-3.83333 3.1 0
-3.83333 3.16667 0
-3.83333 3.23333 0
-3.83333 3.3 0
-3.83333 3.36667 0
-3.83333 3.43333 0
-3.83333 3.5 0
-3.83333 3.56667 0
-3.83333 3.63333 0
-3.83333 3.7 0
-3.83333 3.76667 0
-3.83333 3.83333 0
-3.83333 3.9 0
-3.83333 3.96667 0
-3.76667 -3.96667 0
-3.76667 -3.9 0
-3.76667 -3.83333 0
-3.76667 -3.76667 0
-3.76667 -3.7 0
-3.76667 -3.63333 0
-3.76667 -3.56667 0
-3.76667 -3.5 0
-3.76667 -3.43333 0
-3.76667 -3.36667 0
-3.76667 -3.3 0
-3.76667 -3.23333 0
-3.76667 -3.16667 0
-3.76667 -3.1 0
-3.76667 -3.03333 0
-3.76667 -2.96667 0
-3.76667 -2.9 0
-3.76667 -2.83333 0
-3.76667 -2.76667 0
-3.76667 -2.7 0
-3.76667 -2.63333 0
-3.76667 -2.56667 0
-3.76667 -2.5 0
-3.76667 -2.43333 0
-3.76667 -2.36667 0
-3.76667 -2.3 0
-3.76667 -2.23333 0
-3.76667 -2.16667 0
-3.76667 -2.1 0
-3.76667 -2.03333 0
-3.76667 -1.96667 0
-3.76667 -1.9 0
-3.76667 -1.83333 0
-3.76667 -1.76667 0
-3.76667 -1.7 0
-3.76667 -1.63333 0
-3.76667 -1.56667 0
-3.76667 -1.5 0
-3.76667 -1.43333 0
-3.76667 -1.36667 0
-3.76667 -1.3 0
-3.76667 -1.23333 0
-3.76667 -1.16667 0
-3.76667 -1.1 0
-3.76667 -1.03333 0
-3.76667 -0.966667 0
-3.76667 -0.9 0
-3.76667 -0.833333 0
-3.76667 -0.766667 0
-3.76667 -0.7 0
-3.76667 -0.633333 0
-3.76667 -0.566667 0
-3.76667 -0.5 0
-3.76667 -0.433333 0
-3.76667 -0.366667 0
-3.76667 -0.3 0
-3.76667 -0.233333 0
-3.76667 -0.166667 0
-3.76667 -0.1 0
-3.76667 -0.0333333 0
-3.76667 0.0333333 0
-3.76667 0.1 0
-3.76667 0.166667 0
-3.76667 0.233333 0
-3.76667 0.3 0
-3.76667 0.366667 0
-3.76667 0.433333 0
-3.76667 0.5 0
-3.76667 0.566667 0
-3.76667 0.633333 0
-3.76667 0.7 0
-3.76667 0.766667 0
-3.76667 0.833333 0
-3.76667 0.9 0
-3.76667 0.966667 0
-3.76667 1.03333 0
-3.76667 1.1 0
-3.76667 1.16667 0
-3.76667 1.23333 0
-3.76667 1.3 0
-3.76667 1.36667 0
-3.76667 1.43333 0
-3.76667 1.5 0
-3.76667 1.56667 0
-3.76667 1.63333 0
-3.76667 1.7 0
-3.76667 1.76667 0
-3.76667 1.83333 0
-3.76667 1.9 0
-3.76667 1.96667 0
-3.76667 2.03333 0
-3.76667 2.1 0
-3.76667 2.16667 0
-3.76667 2.23333 0
-3.76667 2.3 0
-3.76667 2.36667 0
-3.76667 2.43333 0
-3.76667 2.5 0
-3.76667 2.56667 0
-3.76667 2.63333 0
-3.76667 2.7 0
-3.76667 2.76667 0
-3.76667 2.83333 0
-3.76667 2.9 0
-3.76667 2.96667 0
-3.76667 3.03333 0
-3.76667 3.1 0
-3.76667 3.16667 0
-3.76667 3.23333 0
-3.76667 3.3 0
-3.76667 3.36667 0
-3.76667 3.43333 0
-3.76667 3.5 0
-3.76667 3.56667 0
-3.76667 3.63333 0
-3.76667 3.7 0
-3.76667 3.76667 0
-3.76667 3.83333 0
-3.76667 3.9 0
-3.76667 3.96667 0
-3.7 -3.96667 0
-3.7 -3.9 0
-3.7 -3.83333 0
-3.7 -3.76667 0
-3.7 -3.7 0
-3.7 -3.63333 0
-3.7 -3.56667 0
-3.7 -3.5 0
-3.7 -3.43333 0
-3.7 -3.36667 0
-3.7 -3.3 0
-3.7 -3.23333 0
-3.7 -3.16667 0
-3.7 -3.1 0
-3.7 -3.03333 0
-3.7 -2.96667 0
-3.7 -2.9 0
-3.7 -2.83333 0
-3.7 -2.76667 0
-3.7 -2.7 0
-3.7 -2.63333 0
-3.7 -2.56667 0
-3.7 -2.5 0
-3.7 -2.43333 0
-3.7 -2.36667 0
-3.7 -2.3 0
-3.7 -2.23333 0
-3.7 -2.16667 0
-3.7 -2.1 0
-3.7 -2.03333 0
-3.7 -1.96667 0
-3.7 -1.9 0
-3.7 -1.83333 0
-3.7 -1.76667 0
-3.7 -1.7 0
-3.7 -1.63333 0
-3.7 -1.56667 0
-3.7 -1.5 0
-3.7 -1.43333 0
-3.7 -1.36667 0
-3.7 -1.3 0
-3.7 -1.23333 0
-3.7 -1.16667 0
-3.7 -1.1 0
-3.7 -1.03333 0
-3.7 -0.966667 0
-3.7 -0.9 0
-3.7 -0.833333 0
-3.7 -0.766667 0
-3.7 -0.7 0
-3.7 -0.633333 0
-3.7 -0.566667 0
-3.7 -0.5 0
-3.7 -0.433333 0
-3.7 -0.366667 0
-3.7 -0.3 0
-3.7 -0.233333 0
-3.7 -0.166667 0
-3.7 -0.1 0
-3.7 -0.0333333 0
-3.7 0.0333333 0
-3.7 0.1 0
-3.7 0.166667 0
-3.7 0.233333 0
-3.7 0.3 0
-3.7 0.366667 0
-3.7 0.433333 0
-3.7 0.5 0
-3.7 0.566667 0
-3.7 0.633333 0
-3.7 0.7 0
-3.7 0.766667 0
-3.7 0.833333 0
-3.7 0.9 0
-3.7 0.966667 0
-3.7 1.03333 0
-3.7 1.1 0
-3.7 1.16667 0
-3.7 1.23333 0
-3.7 1.3 0
-3.7 1.36667 0
-3.7 1.43333 0
-3.7 1.5 0
-3.7 1.56667 0
-3.7 1.63333 0
-3.7 1.7 0
-3.7 1.76667 0
-3.7 1.83333 0
-3.7 1.9 0
-3.7 1.96667 0
-3.7 2.03333 0
-3.7 2.1 0
-3.7 2.16667 0
-3.7 2.23333 0
-3.7 2.3 0
-3.7 2.36667 0
-3.7 2.43333 0
-3.7 2.5 0
-3.7 2.56667 0
-3.7 2.63333 0
-3.7 2.7 0
-3.7 2.76667 0
-3.7 2.83333 0
-3.7 2.9 0
-3.7 2.96667 0
-3.7 3.03333 0
[...]
POINT_DATA 28800
SCALARS J double 1
LOOKUP_TABLE default
0.98979
0.988942
0.988075
0.987189
0.986283
0.985359
0.984415
0.983453
0.982473
0.981474
0.980457
0.979424
0.978372
0.977305
0.976221
0.975122
0.974008
0.97288
0.971739
0.970585
0.969421
0.968246
0.967063
0.965873
0.964677
0.963477
0.962275
0.961073
0.959874
0.95868
0.957494
0.956318
0.955156
0.95401
0.952885
0.951785
0.950711
0.94967
0.948664
0.947697
0.946775
0.945899
0.945075
0.944306
0.943595
0.942946
0.942361
0.941842
0.941392
0.941012
0.940703
0.940463
0.940293
0.940191
0.940155
0.940181
0.940266
0.940405
0.940593
0.940824
0.941091
0.941387
0.941706
0.942038
0.942378
0.942716
0.943046
0.94336
0.943652
0.943914
0.944142
0.94433
0.944475
0.944573
0.944623
0.944623
0.944573
0.944475
0.94433
0.944141
0.943913
0.943651
0.94336
0.943046
0.942716
0.942379
0.94204
0.941708
0.941391
0.941096
0.940831
0.940602
0.940417
0.94028
0.940197
0.940174
0.940213
0.940318
0.940491
0.940734
0.941048
0.941432
0.941885
0.942408
0.942997
0.94365
0.944365
0.945138
0.945967
0.946846
0.947773
0.948743
0.949753
0.950798
0.951874
0.952978
0.954106
0.955254
0.956419
0.957597
0.990779
0.989929
0.989059
0.988168
0.987256
0.986325
0.985373
0.984401
0.983409
0.982398
0.981367
0.980317
0.979249
0.978162
0.977058
0.975936
0.974797
0.973643
0.972474
0.97129
0.970094
0.968885
0.967665
0.966436
0.9652
0.963957
0.962711
0.961462
0.960214
0.958969
0.95773
0.956499
0.95528
0.954077
0.952892
0.951731
0.950596
0.949491
0.948422
0.947392
0.946407
0.945469
0.944583
0.943754
0.942985
0.94228
0.941643
0.941075
0.940579
0.940157
0.93981
0.939538
0.93934
0.939216
0.939162
0.939176
0.939254
0.939391
0.939581
0.939818
0.940096
0.940407
0.940742
0.941094
0.941455
0.941815
0.942167
0.942503
0.942815
0.943097
0.943341
0.943544
0.9437
0.943805
0.943859
0.943858
0.943805
0.943699
0.943543
0.94334
0.943096
0.942814
0.942502
0.942167
0.941815
0.941456
0.941096
0.940745
0.940411
0.940102
0.939826
0.93959
0.939402
0.939268
0.939193
0.939182
0.939238
0.939366
0.939568
0.939843
0.940194
0.94062
0.94112
0.941692
0.942334
0.943043
0.943816
0.944649
0.945539
0.946481
0.947471
0.948504
0.949577
0.950685
0.951823
0.952988
0.954176
0.955382
0.956603
0.957835
0.991806
0.990955
0.990083
0.989189
0.988273
0.987336
0.986377
0.985397
0.984395
0.983372
0.982329
0.981264
0.98018
0.979075
0.977951
0.976807
0.975645
0.974466
0.973269
0.972056
0.970827
0.969585
0.968329
0.967062
0.965785
0.964499
0.963208
0.961912
0.960614
0.959316
0.958023
0.956736
0.955458
0.954194
0.952948
0.951722
0.950522
0.949352
0.948216
0.94712
0.946066
0.945062
0.944111
0.943217
0.942386
0.941621
0.940925
0.940303
0.939757
0.939289
0.9389
0.938591
0.938362
0.938212
0.938138
0.938137
0.938206
0.938339
0.938531
0.938775
0.939064
0.939389
0.939743
0.940116
0.940498
0.940882
0.941258
0.941618
0.941952
0.942255
0.942518
0.942735
0.942903
0.943017
0.943074
0.943074
0.943016
0.942902
0.942734
0.942517
0.942254
0.941952
0.941617
0.941258
0.940883
0.940499
0.940117
0.939746
0.939394
0.93907
0.938783
0.938541
0.938352
0.938221
0.938155
0.938159
0.938236
0.93839
0.938623
0.938935
0.939328
0.9398
0.940351
0.940977
0.941676
0.942446
0.943282
0.94418
0.945135
0.946144
0.947201
0.948301
0.949441
0.950615
0.951818
0.953046
0.954296
0.955562
0.956842
0.958131
0.99287
0.99202
0.991147
0.990252
0.989334
0.988392
0.987428
0.986441
0.985431
0.984399
0.983344
0.982266
0.981167
0.980045
0.978902
0.977739
0.976554
0.97535
0.974127
0.972885
0.971625
0.97035
0.969058
0.967753
0.966435
0.965107
0.963769
0.962425
0.961077
0.959726
0.958377
0.957032
0.955694
0.954368
0.953057
0.951765
0.950497
0.949257
0.948051
0.946883
0.945759
0.944683
0.943662
0.942699
0.9418
0.940969
0.940211
0.93953
0.938928
0.938409
0.937974
0.937624
0.93736
0.93718
0.937082
0.937065
0.937122
0.93725
0.937443
0.937693
0.937992
0.938333
0.938705
0.9391
0.939507
0.939916
0.940318
0.940703
0.941062
0.941387
0.941669
0.941904
0.942084
0.942207
0.942269
0.942269
0.942207
0.942084
0.941903
0.941668
0.941385
0.941061
0.940702
0.940318
0.939916
0.939508
0.939102
0.938708
0.938338
0.937999
0.937701
0.937454
0.937263
0.937138
0.937083
0.937104
0.937205
0.937389
0.937657
0.938011
0.93845
0.938973
0.939579
0.940265
0.941028
0.941863
0.942766
0.943733
0.944759
0.945839
0.946968
0.948139
0.949349
0.950592
0.951863
0.953158
0.954472
0.955801
0.95714
0.958487
0.99397
0.993123
0.992252
0.991357
0.990438
0.989495
0.988527
0.987535
0.986518
0.985478
0.984413
0.983324
0.982211
0.981074
0.979915
0.978732
0.977526
0.976299
0.97505
0.97378
0.972491
0.971182
0.969856
0.968513
0.967155
0.965784
0.964401
0.963008
0.961608
0.960204
0.958798
0.957393
0.955993
0.954602
0.953224
0.951863
0.950524
0.949212
0.947932
0.946689
0.945489
0.944338
0.94324
0.942203
0.941231
0.940329
0.939503
0.938757
0.938094
0.937519
0.937032
0.936637
0.936333
0.936119
0.935995
0.935956
0.936001
0.936122
0.936313
0.936569
0.936879
0.937235
0.937627
0.938045
0.938477
0.938914
0.939344
0.939756
0.940142
0.940491
0.940796
0.941048
0.941243
0.941376
0.941443
0.941442
0.941375
0.941242
0.941047
0.940795
0.94049
0.940141
0.939756
0.939343
0.938914
0.938478
0.938047
0.937631
0.93724
0.936886
0.936578
0.936325
0.936135
0.936017
0.935976
0.936018
0.936146
0.936363
0.936672
0.937071
0.937562
0.938142
0.938809
0.93956
0.940391
0.941297
0.942273
0.943315
0.944417
0.945572
0.946776
0.948023
0.949307
0.950623
0.951965
0.953328
0.954709
0.956102
0.957504
0.95891
0.995107
0.994265
0.993398
0.992505
0.991587
0.990643
0.989674
0.988678
0.987657
0.98661
0.985537
0.984439
0.983314
0.982164
0.980989
0.979789
0.978564
0.977314
0.976041
0.974745
0.973426
0.972086
0.970726
0.969346
0.967948
0.966534
0.965105
0.963664
0.962213
0.960754
0.95929
0.957825
0.956362
0.954904
0.953457
0.952024
0.950611
0.949223
0.947864
0.946542
0.945262
0.94403
0.942852
0.941735
0.940684
0.939706
0.938805
0.937988
0.937259
0.936621
0.936077
0.935631
0.935281
0.93503
0.934874
0.934812
0.93484
0.934951
0.935141
0.9354
0.935721
0.936093
0.936506
0.936948
0.937408
0.937874
0.938334
0.938777
0.939191
0.939567
0.939895
0.940168
0.940378
0.940521
0.940594
0.940594
0.940521
0.940378
0.940167
0.939894
0.939566
0.93919
0.938776
0.938333
0.937874
0.937409
0.93695
0.936509
0.936098
0.935728
0.93541
0.935153
0.934966
0.934857
0.934833
0.934899
0.935058
0.935314
0.935667
0.936118
0.936666
0.937309
0.938043
0.938865
0.93977
0.940753
0.941808
0.94293
0.944112
0.945349
0.946633
0.947959
0.94932
0.950712
0.952128
0.953564
0.955013
0.956473
0.957938
0.959404
0.99628
0.995444
0.994583
0.993694
0.992779
0.991837
0.990868
0.989872
0.988848
0.987797
0.986718
0.985611
0.984477
0.983316
0.982127
0.980911
0.979668
0.978398
0.977103
0.975782
0.974435
0.973065
0.971671
0.970255
0.968818
0.967362
0.965888
0.964399
0.962896
0.961382
0.95986
0.958333
0.956804
0.955279
0.95376
0.952253
0.950763
0.949295
0.947855
0.94645
0.945085
0.943767
0.942503
0.9413
0.940164
0.939103
0.938122
0.937227
0.936424
0.935717
0.93511
0.934606
0.934207
0.933912
0.93372
0.93363
0.933638
0.933738
0.933923
0.934185
0.934516
0.934904
0.935338
0.935806
0.936296
0.936793
0.937286
0.937761
0.938207
0.938612
0.938967
0.939261
0.939489
0.939644
0.939722
0.939722
0.939643
0.939488
0.93926
0.938965
0.938611
0.938206
0.93776
0.937286
0.936794
0.936297
0.935809
0.935342
0.93491
0.934524
0.934195
0.933935
0.933753
0.933657
0.933653
0.933746
0.933941
0.934241
0.934645
0.935154
0.935765
0.936477
0.937284
0.938184
0.93917
0.940236
0.941376
0.942584
0.943852
0.945174
0.946543
0.947953
0.949396
0.950867
0.95236
0.95387
0.955391
0.956918
0.958448
0.959976
0.997487
0.99666
0.995806
0.994924
0.994015
0.993077
0.99211
0.991115
0.990091
0.989037
0.987955
0.986843
0.985701
0.98453
0.98333
0.9821
0.980841
0.979554
0.978237
0.976893
0.97552
0.974121
0.972696
0.971245
0.96977
0.968273
0.966754
0.965217
0.963662
0.962093
0.960512
0.958923
0.957328
0.955733
0.954141
0.952558
0.950988
0.949437
0.947911
0.946418
0.944963
0.943554
0.942199
0.940904
0.939677
0.938526
0.937457
0.936478
0.935594
0.934812
0.934134
0.933566
0.93311
0.932765
0.932533
0.93241
0.932394
0.932478
0.932657
0.932921
0.933261
0.933666
0.934122
0.934617
0.935138
0.935669
0.936197
0.936708
0.937189
0.937626
0.938009
0.938327
0.938574
0.938741
0.938826
0.938826
0.938741
0.938573
0.938326
0.938007
0.937624
0.937187
0.936707
0.936197
0.93567
0.935139
0.93462
0.934126
0.933672
0.933269
0.932932
0.932671
0.932495
0.932414
0.932434
0.93256
0.932797
0.933146
0.933607
0.93418
0.934862
0.935649
0.936538
0.937522
0.938596
0.939752
0.940984
0.942283
0.943643
0.945056
0.946515
0.948012
0.949541
0.951095
0.952667
0.954253
0.955847
0.957444
0.95904
0.96063
0.998727
0.997911
0.997067
0.996195
0.995293
0.994361
0.993399
0.992408
0.991386
0.990333
0.989249
0.988133
0.986987
0.985809
0.984599
0.983358
0.982086
0.980782
0.979447
0.978081
0.976684
0.975258
0.973803
0.972319
0.970807
0.96927
0.967708
0.966123
0.964518
0.962893
0.961254
0.959601
0.95794
0.956274
0.954607
0.952944
0.951292
0.949655
0.94804
0.946455
0.944906
0.943401
0.941947
0.940554
0.93923
0.937981
0.936818
0.935746
0.934774
0.933907
0.933152
0.932512
0.931992
0.931591
0.931312
0.931151
0.931106
0.931172
0.931341
0.931605
0.931953
0.932374
0.932853
0.933378
0.933931
0.934499
0.935066
0.935615
0.936133
0.936605
0.93702
0.937365
0.937632
0.937814
0.937906
0.937906
0.937813
0.937631
0.937364
0.937018
0.936604
0.936132
0.935614
0.935065
0.9345
0.933933
0.933381
0.932858
0.93238
0.931962
0.931617
0.931356
0.93119
0.931128
0.931176
0.931341
0.931625
0.93203
0.932555
0.9332
0.93396
0.934832
0.935809
0.936886
0.938055
0.939308
0.940637
0.942035
0.943493
0.945002
0.946555
0.948144
0.949762
0.951402
0.953057
0.954722
0.95639
0.958058
0.95972
0.961373
0.999999
0.999197
0.998365
0.997504
0.996612
0.995689
0.994735
0.993749
0.992732
0.991682
0.990599
0.989483
0.988334
0.987152
0.985936
0.984686
0.983402
0.982085
0.980733
0.979348
0.97793
0.976479
0.974995
0.97348
0.971934
0.970358
0.968754
0.967123
0.965467
0.963789
0.96209
0.960375
0.958646
0.956908
0.955165
0.953422
0.951684
0.949958
0.948251
0.946569
0.944921
0.943314
0.941757
0.940259
0.938829
0.937476
0.936209
0.935037
0.933968
0.933009
0.932167
0.931448
0.930855
0.930391
0.930057
0.929853
0.929774
0.929817
0.929973
0.930234
0.930589
0.931026
0.931529
0.932083
0.932673
0.93328
0.933888
0.934479
0.935038
0.935549
0.935998
0.936372
0.936662
0.93686
0.93696
0.93696
0.936859
0.936661
0.936371
0.935996
0.935548
0.935037
0.934479
0.933888
0.933281
0.932674
0.932086
0.931534
0.931033
0.930599
0.930246
0.929988
0.929835
0.929797
0.929879
0.930088
0.930427
0.930895
0.931493
0.932218
0.933065
0.934029
0.935103
0.936281
0.937553
0.938911
0.940345
0.941848
0.943409
0.94502
0.946673
0.948358
0.950068
0.951797
0.953537
0.955282
0.957027
0.958766
0.960495
0.962211
1.0013
1.00051
0.999697
0.99885
0.997971
0.99706
0.996116
0.995139
0.994129
0.993085
0.992006
0.990893
0.989744
0.98856
0.98734
0.986084
0.984792
0.983464
0.982099
0.980698
0.97926
0.977787
0.976277
0.974733
0.973154
0.971542
0.969897
0.968222
0.966517
0.964785
0.963029
0.961251
0.959454
0.957643
0.955823
0.953997
0.952173
0.950355
0.948551
0.946769
0.945017
0.943302
0.941636
0.940026
0.938484
0.937018
0.93564
0.934358
0.933183
0.932122
0.931184
0.930376
0.929702
0.929166
0.928771
0.928515
0.928396
0.92841
0.92855
0.928805
0.929166
0.929617
0.930144
0.930731
0.931358
0.932007
0.93266
0.933298
0.933902
0.934455
0.934941
0.935348
0.935663
0.935878
0.935987
0.935987
0.935878
0.935662
0.935347
0.93494
0.934453
0.9339
0.933297
0.93266
0.932008
0.93136
0.930734
0.93015
0.929625
0.929176
0.928818
0.928566
0.92843
0.92842
0.928543
0.928803
0.929204
0.929745
0.930424
0.931237
0.932181
0.933247
0.934428
0.935715
0.937098
0.938569
0.940116
0.941731
0.943402
0.94512
0.946876
0.948661
0.950468
0.952288
0.954115
0.955942
0.957764
0.959575
0.961372
0.96315
1.00263
1.00186
1.00106
1.00023
0.999368
0.998471
0.997541
0.996576
0.995576
0.99454
0.993469
0.992361
0.991216
0.990033
0.988812
0.987554
0.986256
0.98492
0.983545
0.98213
0.980676
0.979183
0.977651
0.97608
0.974471
0.972825
0.971142
0.969424
0.967672
0.965888
0.964075
0.962235
0.960371
0.958488
0.956589
0.95468
0.952766
0.950854
0.948951
0.947065
0.945204
0.943377
0.941594
0.939866
0.938204
0.936617
0.935118
0.933717
0.932426
0.931253
0.930209
0.929301
0.928536
0.927919
0.927452
0.927137
0.926971
0.926951
0.927069
0.927315
0.927679
0.928144
0.928696
0.929315
0.929983
0.930678
0.93138
0.932067
0.93272
0.93332
0.933848
0.93429
0.934634
0.934868
0.934987
0.934987
0.934867
0.934633
0.934289
0.933847
0.933318
0.932719
0.932066
0.931379
0.930679
0.929985
0.929319
0.928702
0.928152
0.92769
0.927329
0.927086
0.926972
0.926997
0.927167
0.927487
0.927959
0.928581
0.929352
0.930265
0.931315
0.932493
0.93379
0.935196
0.936701
0.938292
0.93996
0.941693
0.94348
0.94531
0.947175
0.949065
0.950971
0.952885
0.9548
0.956711
0.95861
0.960494
0.962357
0.964196
1.00398
1.00324
1.00246
1.00165
1.0008
0.999922
0.999008
0.998058
0.997071
0.996047
0.994986
0.993887
0.992748
0.991571
0.990353
0.989095
0.987795
0.986455
0.985072
0.983648
0.982181
0.980671
0.97912
0.977526
0.975889
0.974212
0.972493
0.970735
0.968938
0.967104
0.965236
0.963335
0.961405
0.959449
0.957473
0.955479
0.953475
0.951467
0.949462
0.947468
0.945493
0.943549
0.941644
0.93979
0.937999
0.936283
0.934653
0.933123
0.931705
0.930409
0.929248
0.928229
0.927362
0.926653
0.926105
0.925721
0.9255
0.925438
0.925528
0.925761
0.926124
0.926603
0.927179
0.927833
0.928543
0.929287
0.930042
0.930784
0.931491
0.932142
0.932716
0.933198
0.933573
0.933828
0.933958
0.933958
0.933828
0.933571
0.933197
0.932715
0.93214
0.931489
0.930783
0.930041
0.929288
0.928545
0.927837
0.927185
0.926612
0.926136
0.925776
0.925547
0.925461
0.925527
0.925753
0.926142
0.926695
0.92741
0.928283
0.929307
0.930475
0.931776
0.9332
0.934736
0.93637
0.938092
0.939888
0.941746
0.943655
0.945603
0.947581
0.949578
0.951586
0.953596
0.955602
0.957596
0.959573
0.961529
0.963458
0.965358
1.00536
1.00464
1.00388
1.00309
1.00227
1.00141
1.00051
0.999583
0.998613
0.997605
0.996557
0.99547
0.994342
0.993172
0.991961
0.990707
0.989409
0.988068
0.986682
0.985251
0.983775
0.982253
0.980685
0.979071
0.977412
0.975706
0.973955
0.97216
0.970321
0.968439
0.966518
0.964558
0.962564
0.960537
0.958482
0.956405
0.95431
0.952203
0.950094
0.947988
0.945897
0.943829
0.941796
0.939809
0.937882
0.936027
0.934258
0.932588
0.931031
0.9296
0.928308
0.927167
0.926185
0.925371
0.924731
0.924267
0.923981
0.923869
0.923925
0.924139
0.924499
0.924988
0.925588
0.926278
0.927033
0.92783
0.928642
0.929444
0.93021
0.930917
0.931543
0.932069
0.932478
0.932758
0.9329
0.932899
0.932757
0.932477
0.932067
0.931542
0.930916
0.930209
0.929443
0.928642
0.927831
0.927036
0.926282
0.925595
0.924998
0.924511
0.924155
0.923945
0.923893
0.92401
0.924302
0.92477
0.925416
0.926236
0.927223
0.928371
0.929669
0.931105
0.932668
0.934343
0.936118
0.937979
0.939911
0.941902
0.943939
0.94601
0.948105
0.950213
0.952325
0.954433
0.956529
0.958607
0.960661
0.962688
0.964681
0.966639
1.00675
1.00606
1.00533
1.00457
1.00377
1.00293
1.00206
1.00115
1.0002
0.999209
0.998179
0.997108
0.995994
0.994837
0.993636
0.99239
0.991098
0.98976
0.988375
0.986942
0.98546
0.98393
0.98235
0.98072
0.979041
0.977311
0.975531
0.973702
0.971825
0.969899
0.967928
0.965912
0.963854
0.961758
0.959627
0.957466
0.95528
0.953075
0.950859
0.94864
0.946427
0.944231
0.942064
0.939938
0.937866
0.935863
0.933943
0.932122
0.930414
0.928836
0.9274
0.926122
0.925011
0.92408
0.923334
0.922779
0.922416
0.922244
0.922257
0.922446
0.922798
0.923295
0.923918
0.924644
0.925447
0.9263
0.927175
0.928042
0.928874
0.929644
0.930327
0.930901
0.931348
0.931655
0.93181
0.93181
0.931654
0.931347
0.930899
0.930325
0.929642
0.928872
0.928041
0.927175
0.926302
0.92545
0.924649
0.923926
0.923305
0.922811
0.922464
0.922279
0.92227
0.922447
0.922815
0.923376
0.924127
0.925065
0.926182
0.927467
0.928908
0.930493
0.932206
0.934033
0.935958
0.937967
0.940043
0.942174
0.944345
0.946544
0.948759
0.950981
0.953199
0.955405
0.957592
0.959753
0.961884
0.963979
0.966035
0.968049
1.00817
1.0075
1.0068
1.00606
1.00529
1.00448
1.00364
1.00275
1.00183
1.00086
0.999851
0.998799
0.997703
0.996562
0.995376
0.994142
0.992861
0.99153
0.99015
0.988719
0.987237
0.985703
0.984115
0.982475
0.98078
0.97903
0.977226
0.975368
0.973456
0.97149
0.969472
0.967403
0.965286
0.963123
0.960917
0.958673
0.956396
0.954093
0.951769
0.949434
0.947098
0.94477
0.942463
0.940191
0.937966
0.935806
0.933725
0.93174
0.929869
0.928129
0.926535
0.925104
0.92385
0.922785
0.921919
0.921258
0.920806
0.920563
0.920523
0.920679
0.921017
0.921519
0.922164
0.922927
0.92378
0.924693
0.925636
0.926574
0.927478
0.928317
0.929063
0.929692
0.930182
0.930518
0.930689
0.930689
0.930517
0.930181
0.92969
0.929061
0.928315
0.927477
0.926573
0.925635
0.924695
0.923783
0.922932
0.922172
0.92153
0.921031
0.920698
0.920547
0.920591
0.920839
0.921297
0.921963
0.922836
0.923907
0.925168
0.926605
0.928205
0.929951
0.931828
0.933819
0.935905
0.938071
0.9403
0.942577
0.944887
0.947218
0.949557
0.951894
0.954219
0.956523
0.9588
0.961044
0.963248
0.96541
0.967525
0.969591
1.00959
1.00895
1.00829
1.00758
1.00684
1.00606
1.00525
1.00439
1.00349
1.00255
1.00157
1.00054
0.999467
0.998347
0.997179
0.995962
0.994695
0.993378
0.992007
0.990584
0.989106
0.987572
0.985983
0.984335
0.98263
0.980866
0.979043
0.97716
0.975218
0.973216
0.971156
0.969039
0.966865
0.964638
0.962361
0.960037
0.957671
0.955269
0.952838
0.950387
0.947924
0.945461
0.943009
0.940584
0.938199
0.935871
0.933618
0.931458
0.92941
0.927493
0.925725
0.924126
0.922711
0.921495
0.920492
0.919709
0.919153
0.918825
0.918722
0.918835
0.919151
0.919653
0.920318
0.921118
0.922024
0.923002
0.924017
0.925034
0.926018
0.926934
0.92775
0.928439
0.928978
0.929347
0.929535
0.929535
0.929346
0.928976
0.928437
0.927748
0.926932
0.926016
0.925033
0.924017
0.923003
0.922027
0.921124
0.920326
0.919665
0.919167
0.918855
0.918747
0.918856
0.919189
0.919751
0.92054
0.92155
0.922771
0.924193
0.925799
0.927573
0.929497
0.931551
0.933717
0.935975
0.938307
0.940697
0.943126
0.945581
0.948047
0.950512
0.952965
0.955397
0.957799
0.960165
0.962488
0.964764
0.966989
0.969159
0.971274
1.01102
1.01042
1.00979
1.00912
1.00841
1.00767
1.00688
1.00606
1.00519
1.00428
1.00333
1.00233
1.00128
1.00019
0.999043
0.997848
0.996601
0.9953
0.993945
0.992534
0.991065
0.989538
0.987952
0.986304
0.984594
0.982821
0.980984
0.979082
0.977116
0.975084
0.972987
0.970825
0.968601
0.966314
0.963969
0.961568
0.959116
0.956618
0.95408
0.951511
0.948921
0.946319
0.943719
0.941135
0.938582
0.936079
0.933643
0.931295
0.929055
0.926945
0.924987
0.923201
0.921606
0.920221
0.919062
0.918139
0.917462
0.917033
0.916852
0.916911
0.917198
0.917693
0.918374
0.919211
0.920171
0.921218
0.922313
0.923416
0.924487
0.925488
0.926383
0.92714
0.927733
0.928139
0.928346
0.928346
0.928138
0.927731
0.927138
0.926381
0.925486
0.924486
0.923415
0.922313
0.92122
0.920175
0.919217
0.918383
0.917706
0.917215
0.916933
0.916879
0.917066
0.9175
0.918184
0.919113
0.920279
0.921671
0.923272
0.925065
0.92703
0.929146
0.931392
0.933745
0.936186
0.938695
0.941252
0.943839
0.946442
0.949047
0.951639
0.954209
0.956747
0.959245
0.961696
0.964096
0.966439
0.968722
0.970944
0.973102
1.01245
1.01189
1.0113
1.01067
1.01
1.00929
1.00854
1.00775
1.00692
1.00605
1.00513
1.00416
1.00314
1.00208
1.00096
0.999796
0.998573
0.997296
0.995961
0.994568
0.993115
0.9916
0.990022
0.98838
0.986672
0.984896
0.983052
0.981137
0.979153
0.977096
0.974969
0.972769
0.970499
0.968159
0.96575
0.963277
0.960742
0.95815
0.955508
0.952823
0.950105
0.947363
0.944611
0.941863
0.939136
0.936448
0.933819
0.93127
0.928824
0.926506
0.924338
0.922346
0.920551
0.918976
0.917639
0.916555
0.915737
0.915189
0.914914
0.914905
0.915151
0.915632
0.916324
0.917197
0.918213
0.919334
0.920515
0.921712
0.92288
0.923976
0.924958
0.925792
0.926445
0.926894
0.927123
0.927122
0.926893
0.926443
0.92579
0.924956
0.923974
0.922878
0.921711
0.920515
0.919336
0.918218
0.917204
0.916335
0.915646
0.915169
0.914929